ITEM: TIMESTEP
6500
ITEM: NUMBER OF ATOMS
10
ITEM: BOX BOUNDS pp pp pp
-0.0837928 158.344
-0.0837928 158.344
-0.0837928 158.344
ITEM: ATOMS id type x y z
2 1 1.51998 1.46134 1.5018234
1303 1 3.08856 3.11942 3.0685434
1301 1 -0.0590974 3.06838 3.08476
51 1 -0.072975 3.11509 -0.0746327
4 1 4.70911 1.45643 3.4644634
6 1 7.82314 1.45498 1.5076534
1305 1 6.19855 3.04379 3.07858
8 1 10.9998 1.52566 1.52767324
1307 1 9.4682 3.08167 3.138143
57 1 9.3531 3.15575 -0.039045
ITEM: TIMESTEP
11000
ITEM: NUMBER OF ATOMS
10
ITEM: BOX BOUNDS pp pp pp
-0.0837928 158.344
-0.0837928 158.344
-0.0837928 158.344
ITEM: ATOMS id type x y z
2 1 1.51998 1.46134 1.50182
1303 1 3.08856 3.11942 3.06854
1301 1 -0.0590974 3.06838 3.08476
51 1 -0.072975 3.11509 -0.0746327
4 1 4.70911 1.85643 2.46446
6 1 7.82314 1.45498 1.50765
1305 1 6.19855 3.04379 3.07858
8 1 9.4682 3.08167 3.13845
1307 1 14.9998 1.52566 1.52767
57 1 9.3531 3.15575 -0.0390857
